LAMMPS data file via write_data, version 16 Feb 2016, timestep = 100000

8760 atoms
2 atom types
13020 bonds
2 bond types
25920 angles
2 angle types
51600 dihedrals
3 dihedral types
8640 impropers
2 improper types

-4.1982322139020312e-02 1.2869767707814270e+02 xlo xhi
-4.0786389027474002e-02 1.2860128638903643e+02 ylo yhi
0.0000000000000000e+00 1.3000000000000000e+02 zlo zhi

Masses

1 12.01
2 1

Atoms # full

3 1 1 0.0000000000000000e+00 2.5882256072502141e+00 2.9748127247137424e+00 4.1189160279729338e+00 0 0 0
4 1 1 0.0000000000000000e+00 2.5879292465416781e+00 4.4031545556257559e+00 4.0969278326337486e+00 0 0 0
122 1 1 0.0000000000000000e+00 3.8311695179221341e+00 2.2616482136249565e+00 4.1215599445306177e+00 0 0 0
123 1 1 0.0000000000000000e+00 5.0737853261459547e+00 2.9739493795539036e+00 4.0901128962780318e+00 0 0 0
124 1 1 0.0000000000000000e+00 5.0729378490653154e+00 4.4041413901663518e+00 4.0845532626562573e+00 0 0 0
125 1 1 0.0000000000000000e+00 3.8298131600827552e+00 5.1165475643506335e+00 4.0897351299212428e+00 0 0 0
126 1 1 0.0000000000000000e+00 3.8291115605777879e+00 6.5457685874742424e+00 4.0968439343034122e+00 0 0 0
242 1 1 0.0000000000000000e+00 6.3165156792300730e+00 2.2604515193841008e+00 4.0814568545354923e+00 0 0 0
243 1 1 0.0000000000000000e+00 7.5577390204368387e+00 2.9763556891508625e+00 4.0724464058266632e+00 0 0 0
244 1 1 0.0000000000000000e+00 7.5552839373850551e+00 4.4066594735068430e+00 4.0773236666381010e+00 0 0 0
245 1 1 0.0000000000000000e+00 6.3136816413937975e+00 5.1198896243043031e+00 4.0820947661552323e+00 0 0 0
246 1 1 0.0000000000000000e+00 6.3123046388790049e+00 6.5500287850794319e+00 4.0898798295282859e+00 0 0 0
6 1 1 0.0000000000000000e+00 1.3437893893555397e+00 6.5437663391166483e+00 4.1023522800161230e+00 0 0 0
5 1 1 0.0000000000000000e+00 1.3437902263992609e+00 5.1144035686073988e+00 4.1004758118779794e+00 0 0 0
2 1 1 0.0000000000000000e+00 1.3436739167915932e+00 2.2634375096282948e+00 4.1464888748224791e+00 0 0 0
121 1 1 0.0000000000000000e+00 3.8312517306718989e+00 8.3340760842741624e-01 4.1605182042399287e+00 0 0 0
241 1 1 0.0000000000000000e+00 6.3155200279738395e+00 8.2939445263342759e-01 4.0953131381921910e+00 0 0 0
1 1 1 0.0000000000000000e+00 1.3434173311965620e+00 8.3527753845825481e-01 4.1933809839675860e+00 0 0 0
6124 1 1 0.0000000000000000e+00 9.9620911069998180e-02 4.4030259748026941e+00 4.0986365516019125e+00 1 0 0
6123 1 1 0.0000000000000000e+00 9.9159383809230034e-02 2.9748353676506532e+00 4.1200535079417389e+00 1 0 0
120 1 1 0.0000000000000000e+00 2.5878523022359401e+00 1.2289535763409154e-01 4.2063881367767708e+00 0 1 0
6240 1 1 0.0000000000000000e+00 9.8729107020933321e-02 1.2295871335946595e-01 4.2062197136470925e+00 1 1 0
240 1 1 0.0000000000000000e+00 5.0720669584449301e+00 1.1763822183719302e-01 4.1403879061987379e+00 0 1 0
360 1 1 0.0000000000000000e+00 7.5579465460532127e+00 1.1570020641258508e-01 4.0728403861156171e+00 0 1 0
362 1 1 0.0000000000000000e+00 8.8004672081009261e+00 2.2630532452386207e+00 4.0639344833389393e+00 0 0 0
365 1 1 0.0000000000000000e+00 8.7955563550401017e+00 5.1221402634746545e+00 4.0761911662250716e+00 0 0 0
366 1 1 0.0000000000000000e+00 8.7941972615449888e+00 6.5520071861430811e+00 4.0751979963613101e+00 0 0 0
361 1 1 0.0000000000000000e+00 8.8008686984881770e+00 8.3178036659126509e-01 4.0522306297368438e+00 0 0 0
363 1 1 0.0000000000000000e+00 1.0041923589689864e+01 2.9794235957864821e+00 4.0542875452208635e+00 0 0 0
364 1 1 0.0000000000000000e+00 1.0038756071191429e+01 4.4102216294202172e+00 4.0580102894606016e+00 0 0 0
482 1 1 0.0000000000000000e+00 1.1284289780206381e+01 2.2649375672623862e+00 4.0209795002220261e+00 0 0 0
483 1 1 0.0000000000000000e+00 1.2525342696327227e+01 2.9772524738946862e+00 3.9909713224045182e+00 0 0 0
484 1 1 0.0000000000000000e+00 1.2520893423872344e+01 4.4077163022577741e+00 3.9915302776224042e+00 0 0 0
485 1 1 0.0000000000000000e+00 1.1279464482239540e+01 5.1230703671926445e+00 4.0264630450954737e+00 0 0 0
486 1 1 0.0000000000000000e+00 1.1276350952768896e+01 6.5522087899855563e+00 4.0211215321115032e+00 0 0 0
602 1 1 0.0000000000000000e+00 1.3766477269913389e+01 2.2609147417485458e+00 3.9531589626169263e+00 0 0 0
603 1 1 0.0000000000000000e+00 1.5004925812070274e+01 2.9749214539255666e+00 3.9269633257539263e+00 0 0 0
604 1 1 0.0000000000000000e+00 1.4999394546120444e+01 4.4058852833205187e+00 3.9316254446201384e+00 0 0 0
605 1 1 0.0000000000000000e+00 1.3759068914150385e+01 5.1216109914029264e+00 3.9562993180121371e+00 0 0 0
606 1 1 0.0000000000000000e+00 1.3755335356988327e+01 6.5509158385626947e+00 3.9575722739597325e+00 0 0 0
601 1 1 0.0000000000000000e+00 1.3768499725433628e+01 8.3000911361006835e-01 3.9414611497672949e+00 0 0 0
481 1 1 0.0000000000000000e+00 1.1285536709913931e+01 8.3387895470174167e-01 4.0046564278702146e+00 0 0 0
480 1 1 0.0000000000000000e+00 1.0043131032294333e+01 1.1950765323327370e-01 4.0211354265435251e+00 0 1 0
600 1 1 0.0000000000000000e+00 1.2526559282502623e+01 1.1758438136349669e-01 3.9629902675707682e+00 0 1 0
720 1 1 0.0000000000000000e+00 1.5008251329880636e+01 1.1333229199147707e-01 3.9076993607001915e+00 0 1 0
7 1 1 0.0000000000000000e+00 2.5867756151138033e+00 7.2581719486082559e+00 4.0997392651794922e+00 0 0 0
127 1 1 0.0000000000000000e+00 5.0696547805846439e+00 7.2612634437814849e+00 4.0964510885469654e+00 0 0 0
247 1 1 0.0000000000000000e+00 7.5530109945012986e+00 7.2649402488405785e+00 4.0850479865243372e+00 0 0 0
9 1 1 0.0000000000000000e+00 1.3435286463721203e+00 9.4000893912836219e+00 4.0741068777637892e+00 0 0 0
8 1 1 0.0000000000000000e+00 2.5864921543912489e+00 8.6882751460733605e+00 4.0885652879558751e+00 0 0 0
11 1 1 0.0000000000000000e+00 2.5843136794320203e+00 1.1545299287026912e+01 4.0450657407449970e+00 0 0 0
12 1 1 0.0000000000000000e+00 2.5831538472117335e+00 1.2975257437224634e+01 4.0228358724855671e+00 0 0 0
128 1 1 0.0000000000000000e+00 5.0692645645293295e+00 8.6910919816491390e+00 4.0942071587760251e+00 0 0 0
129 1 1 0.0000000000000000e+00 3.8272775493098514e+00 9.4036742630573418e+00 4.0861024039239515e+00 0 0 0
130 1 1 0.0000000000000000e+00 3.8262472121805802e+00 1.0832705839617018e+01 4.0642233120385267e+00 0 0 0
131 1 1 0.0000000000000000e+00 5.0675858942180527e+00 1.1546485163198057e+01 4.0546405113544912e+00 0 0 0
132 1 1 0.0000000000000000e+00 5.0649212007426367e+00 1.2975446975183768e+01 4.0211688093355678e+00 0 0 0
133 1 1 0.0000000000000000e+00 3.8230911227570590e+00 1.3689517930754279e+01 4.0092561700187161e+00 0 0 0
248 1 1 0.0000000000000000e+00 7.5527070599560897e+00 8.6932593218621967e+00 4.0769437058547275e+00 0 0 0
249 1 1 0.0000000000000000e+00 6.3108168797537854e+00 9.4055107271583189e+00 4.0859148026729759e+00 0 0 0
250 1 1 0.0000000000000000e+00 6.3099229319717498e+00 1.0833995229622520e+01 4.0646758185654592e+00 0 0 0
251 1 1 0.0000000000000000e+00 7.5506945016491560e+00 1.1546366699076279e+01 4.0420853117285427e+00 0 0 0
252 1 1 0.0000000000000000e+00 7.5487721527404421e+00 1.2973643302414249e+01 4.0118242446997039e+00 0 0 0
253 1 1 0.0000000000000000e+00 6.3063709085071640e+00 1.3686767653565965e+01 3.9988962618611219e+00 0 0 0
10 1 1 0.0000000000000000e+00 1.3433944906005075e+00 1.0830659410397310e+01 4.0516308698362495e+00 0 0 0
13 1 1 0.0000000000000000e+00 1.3430749945290172e+00 1.3690296278046263e+01 4.0092416503947108e+00 0 0 0
6132 1 1 0.0000000000000000e+00 1.0322067692173187e-01 1.2975149981488359e+01 4.0269656907971036e+00 1 0 0
6131 1 1 0.0000000000000000e+00 1.0242443365007231e-01 1.1545212597149749e+01 4.0491317369920150e+00 1 0 0
6128 1 1 0.0000000000000000e+00 1.0076498758602703e-01 8.6878924501768005e+00 4.0916648332672230e+00 1 0 0
6127 1 1 0.0000000000000000e+00 1.0053169024049147e-01 7.2576448894381755e+00 4.1022639376048762e+00 1 0 0
367 1 1 0.0000000000000000e+00 1.0034691654151679e+01 7.2654075886020681e+00 4.0481526206906135e+00 0 0 0
487 1 1 0.0000000000000000e+00 1.2515956369831756e+01 7.2647513703915720e+00 3.9889881268480454e+00 0 0 0
607 1 1 0.0000000000000000e+00 1.4993000664940915e+01 7.2636620833868841e+00 3.9346923037856385e+00 0 0 0
369 1 1 0.0000000000000000e+00 8.7934415182374241e+00 9.4070694509319654e+00 4.0576049182573826e+00 0 0 0
370 1 1 0.0000000000000000e+00 8.7935877961636386e+00 1.0834856456222838e+01 4.0487672182320509e+00 0 0 0
373 1 1 0.0000000000000000e+00 8.7908975219091037e+00 1.3685102949375430e+01 4.0120318477207437e+00 0 0 0
368 1 1 0.0000000000000000e+00 1.0034625648138858e+01 8.6944467312033158e+00 4.0453615856591201e+00 0 0 0
371 1 1 0.0000000000000000e+00 1.0035747671420097e+01 1.1547393497773056e+01 4.0431464778040098e+00 0 0 0
372 1 1 0.0000000000000000e+00 1.0034062381271569e+01 1.2974811419341009e+01 4.0349667457541161e+00 0 0 0
488 1 1 0.0000000000000000e+00 1.2515455573215531e+01 8.6929245434976430e+00 3.9987017533937639e+00 0 0 0
489 1 1 0.0000000000000000e+00 1.1275953240196483e+01 9.4063643672734756e+00 4.0297016244544208e+00 0 0 0
490 1 1 0.0000000000000000e+00 1.1277094040388922e+01 1.0834780172752605e+01 4.0391332182380522e+00 0 0 0
491 1 1 0.0000000000000000e+00 1.2517455770633648e+01 1.1546872510404855e+01 4.0266861799311826e+00 0 0 0
492 1 1 0.0000000000000000e+00 1.2517329528760015e+01 1.2974545960620842e+01 4.0280664306294769e+00 0 0 0
493 1 1 0.0000000000000000e+00 1.1275576036552840e+01 1.3686985806377791e+01 4.0382696153476072e+00 0 0 0
608 1 1 0.0000000000000000e+00 1.4993150766584579e+01 8.6910202841056776e+00 3.9374748042393675e+00 0 0 0
609 1 1 0.0000000000000000e+00 1.3755267041682190e+01 9.4051027186212508e+00 3.9740362244843039e+00 0 0 0
610 1 1 0.0000000000000000e+00 1.3756929967125105e+01 1.0833734504174386e+01 3.9845525160450985e+00 0 0 0
611 1 1 0.0000000000000000e+00 1.4995806465350276e+01 1.1547637887503935e+01 3.9369991273767191e+00 0 0 0
612 1 1 0.0000000000000000e+00 1.4995573750614275e+01 1.2977051437321906e+01 3.9335566989937498e+00 0 0 0
613 1 1 0.0000000000000000e+00 1.3756584781047771e+01 1.3689142984977899e+01 3.9866373832574316e+00 0 0 0
17 1 1 0.0000000000000000e+00 1.3425054683294990e+00 1.7984906271459003e+01 3.9803487213680726e+00 0 0 0
18 1 1 0.0000000000000000e+00 1.3423850380530640e+00 1.9413777357788927e+01 4.0062379497464020e+00 0 0 0
134 1 1 0.0000000000000000e+00 3.8206073946621859e+00 1.5119075628190309e+01 3.9817375467981622e+00 0 0 0
254 1 1 0.0000000000000000e+00 6.3030448105795180e+00 1.5114817553403489e+01 3.9768244385897407e+00 0 0 0
15 1 1 0.0000000000000000e+00 2.5815680062795860e+00 1.5836790248499822e+01 3.9748527264733098e+00 0 0 0
16 1 1 0.0000000000000000e+00 2.5804078924775058e+00 1.7267339505119036e+01 3.9687478534147007e+00 0 0 0
19 1 1 0.0000000000000000e+00 2.5788727406515859e+00 2.0126230644739216e+01 4.0209717179758995e+00 0 0 0
135 1 1 0.0000000000000000e+00 5.0608454898832180e+00 1.5829821258279750e+01 3.9682915256451237e+00 0 0 0
136 1 1 0.0000000000000000e+00 5.0579684948160910e+00 1.7258951598868965e+01 3.9712144281132171e+00 0 0 0
137 1 1 0.0000000000000000e+00 3.8190535357599655e+00 1.7977970263822456e+01 3.9762054753509148e+00 0 0 0
138 1 1 0.0000000000000000e+00 3.8162796188482195e+00 1.9407085060958714e+01 4.0094988569608665e+00 0 0 0
139 1 1 0.0000000000000000e+00 5.0561998777163399e+00 2.0115084063435415e+01 4.0332828652576342e+00 0 0 0
255 1 1 0.0000000000000000e+00 7.5458842593514568e+00 1.5825348789087135e+01 3.9844178994210098e+00 0 0 0
256 1 1 0.0000000000000000e+00 7.5426128122584668e+00 1.7253426743412934e+01 3.9972016915244755e+00 0 0 0
257 1 1 0.0000000000000000e+00 6.2996301051245824e+00 1.7967137359963235e+01 3.9940328355657355e+00 0 0 0
258 1 1 0.0000000000000000e+00 6.2954042726337676e+00 1.9395611298368316e+01 4.0247551334631968e+00 0 0 0
259 1 1 0.0000000000000000e+00 7.5347356314815555e+00 2.0107525413160250e+01 4.0490760542251509e+00 0 0 0
14 1 1 0.0000000000000000e+00 1.3428984191278688e+00 1.5121729594804728e+01 3.9840323925201355e+00 0 0 0
6136 1 1 0.0000000000000000e+00 1.0476125587575999e-01 1.7267127469786011e+01 3.9695963122696529e+00 1 0 0
6139 1 1 0.0000000000000000e+00 1.0571258705664699e-01 2.0125918496187438e+01 4.0195767357280205e+00 1 0 0
6135 1 1 0.0000000000000000e+00 1.0399592900489985e-01 1.5836615862162519e+01 3.9768515324402629e+00 1 0 0
615 1 1 0.0000000000000000e+00 1.4990825215282333e+01 1.5834207370160712e+01 3.9454888576560361e+00 0 0 0
619 1 1 0.0000000000000000e+00 1.4983560393855964e+01 2.0119869821639664e+01 3.9855925237141783e+00 0 0 0
498 1 1 0.0000000000000000e+00 1.1262940031614674e+01 1.9398450881216483e+01 4.0844771287875155e+00 0 0 0
497 1 1 0.0000000000000000e+00 1.1266790938334138e+01 1.7969311441377588e+01 4.0675080641124675e+00 0 0 0
496 1 1 0.0000000000000000e+00 1.2509370783081781e+01 1.7257513957040057e+01 4.0454193343333555e+00 0 0 0
495 1 1 0.0000000000000000e+00 1.2512743598914405e+01 1.5828760751469401e+01 4.0299948265446757e+00 0 0 0
379 1 1 0.0000000000000000e+00 1.0019223836263549e+01 2.0109650847051572e+01 4.0847564059339163e+00 0 0 0
374 1 1 0.0000000000000000e+00 8.7891547054594987e+00 1.5112959530986265e+01 4.0027343596326954e+00 0 0 0
378 1 1 0.0000000000000000e+00 8.7779529035167254e+00 1.9394765566039325e+01 4.0583289220858010e+00 0 0 0
377 1 1 0.0000000000000000e+00 8.7833337297469818e+00 1.7965495912543783e+01 4.0347353407552955e+00 0 0 0
618 1 1 0.0000000000000000e+00 1.3744521987889776e+01 1.9403530618669762e+01 4.0292117468048900e+00 0 0 0
617 1 1 0.0000000000000000e+00 1.3747876997968506e+01 1.7973957032517536e+01 4.0178925974553685e+00 0 0 0
616 1 1 0.0000000000000000e+00 1.4987742116704913e+01 1.7262657323325083e+01 3.9623700166331215e+00 0 0 0
494 1 1 0.0000000000000000e+00 1.1273146913864048e+01 1.5114647458322345e+01 4.0359974732832296e+00 0 0 0
614 1 1 0.0000000000000000e+00 1.3753921434922590e+01 1.5118039834451977e+01 3.9896910092393871e+00 0 0 0
375 1 1 0.0000000000000000e+00 1.0030444454765352e+01 1.5825762520982908e+01 4.0282574133451137e+00 0 0 0
376 1 1 0.0000000000000000e+00 1.0027083824441224e+01 1.7254001578525358e+01 4.0460399216363356e+00 0 0 0
499 1 1 0.0000000000000000e+00 1.2502207315972189e+01 2.0114695329530196e+01 4.0652333921547052e+00 0 0 0
23 1 1 0.0000000000000000e+00 2.5814835203985464e+00 2.4412980594506223e+01 4.0352188368113540e+00 0 0 0
24 1 1 0.0000000000000000e+00 2.5820235418442752e+00 2.5842475417088639e+01 4.0283546075692191e+00 0 0 0
142 1 1 0.0000000000000000e+00 3.8184898394158688e+00 2.3695552600454164e+01 4.0477643369289984e+00 0 0 0
143 1 1 0.0000000000000000e+00 5.0572713633124922e+00 2.4406378186725199e+01 4.0332719516833668e+00 0 0 0
144 1 1 0.0000000000000000e+00 5.0587757569591627e+00 2.5836805083537630e+01 4.0102705872988231e+00 0 0 0
145 1 1 0.0000000000000000e+00 3.8214278638043373e+00 2.6554536187094147e+01 4.0160461927750601e+00 0 0 0
146 1 1 0.0000000000000000e+00 3.8197951862629362e+00 2.7984780306110554e+01 4.0225601374013555e+00 0 0 0
262 1 1 0.0000000000000000e+00 6.2938662168987580e+00 2.3686445440910862e+01 4.0376315732927512e+00 0 0 0
263 1 1 0.0000000000000000e+00 7.5332598735000600e+00 2.4402179290622026e+01 4.0135192180623758e+00 0 0 0
264 1 1 0.0000000000000000e+00 7.5346469067098800e+00 2.5834494901963044e+01 3.9881840144418952e+00 0 0 0
265 1 1 0.0000000000000000e+00 6.2964334768016714e+00 2.6551577461209156e+01 3.9897120787074192e+00 0 0 0
266 1 1 0.0000000000000000e+00 6.2949957080652155e+00 2.7982432539469119e+01 3.9903093065573128e+00 0 0 0
22 1 1 0.0000000000000000e+00 1.3420522651598616e+00 2.3700333826671880e+01 4.0354116236168238e+00 0 0 0
26 1 1 0.0000000000000000e+00 1.3419890892041082e+00 2.7984149929135445e+01 4.0426430677945051e+00 0 0 0
25 1 1 0.0000000000000000e+00 1.3418919023014571e+00 2.6555845975481049e+01 4.0336442487591002e+00 0 0 0
141 1 1 0.0000000000000000e+00 3.8171035276479035e+00 2.2265668438660995e+01 4.0541241704597404e+00 0 0 0
261 1 1 0.0000000000000000e+00 6.2930592315321778e+00 2.2254888873463468e+01 4.0545319433976710e+00 0 0 0
21 1 1 0.0000000000000000e+00 1.3421462448292172e+00 2.2271552711441156e+01 4.0344423017432343e+00 0 0 0
6143 1 1 0.0000000000000000e+00 1.0242663501128937e-01 2.4412253044814548e+01 4.0362848054335521e+00 1 0 0
6144 1 1 0.0000000000000000e+00 1.0196595518119592e-01 2.5841713010810288e+01 4.0300137073212481e+00 1 0 0
20 1 1 0.0000000000000000e+00 2.5786856176329649e+00 2.1555196515440194e+01 4.0392635533385990e+00 0 0 0
6140 1 1 0.0000000000000000e+00 1.0577731331979492e-01 2.1554802684673859e+01 4.0385281448950003e+00 1 0 0
140 1 1 0.0000000000000000e+00 5.0535299562026541e+00 2.1545001547569974e+01 4.0544221285061113e+00 0 0 0
260 1 1 0.0000000000000000e+00 7.5322789540663377e+00 2.1537631028535660e+01 4.0564946986503712e+00 0 0 0
382 1 1 0.0000000000000000e+00 8.7720922211759706e+00 2.3686137310584837e+01 4.0202703776449136e+00 0 0 0
385 1 1 0.0000000000000000e+00 8.7729241315912638e+00 2.6551837690869878e+01 3.9816914508083396e+00 0 0 0
386 1 1 0.0000000000000000e+00 8.7699552724316057e+00 2.7983496067407074e+01 3.9760211509572598e+00 0 0 0
381 1 1 0.0000000000000000e+00 8.7720594123792619e+00 2.2253813594521151e+01 4.0532623674628860e+00 0 0 0
383 1 1 0.0000000000000000e+00 1.0011375491674295e+01 2.4403674432502481e+01 3.9998960019270924e+00 0 0 0
384 1 1 0.0000000000000000e+00 1.0012148892317487e+01 2.5835730213073081e+01 3.9828439065675414e+00 0 0 0
502 1 1 0.0000000000000000e+00 1.1252081023614753e+01 2.3688589474034799e+01 4.0095988565304310e+00 0 0 0
503 1 1 0.0000000000000000e+00 1.2492606753923065e+01 2.4405035964080518e+01 3.9843052189603592e+00 0 0 0
504 1 1 0.0000000000000000e+00 1.2491235754375547e+01 2.5836151332431882e+01 3.9746457362977932e+00 0 0 0
505 1 1 0.0000000000000000e+00 1.1250885823373935e+01 2.6551659768562089e+01 3.9772556255847298e+00 0 0 0
506 1 1 0.0000000000000000e+00 1.1247732048622604e+01 2.7982243293696843e+01 3.9720897883867461e+00 0 0 0
622 1 1 0.0000000000000000e+00 1.3734793094938405e+01 2.3690942102004254e+01 3.9800320199929318e+00 0 0 0
623 1 1 0.0000000000000000e+00 1.4975260937984043e+01 2.4405685112291412e+01 3.9633581508784479e+00 0 0 0
624 1 1 0.0000000000000000e+00 1.4974306333775351e+01 2.5834941380620911e+01 3.9527298773554320e+00 0 0 0
625 1 1 0.0000000000000000e+00 1.3732283580500850e+01 2.6548722556350569e+01 3.9628109567865093e+00 0 0 0
626 1 1 0.0000000000000000e+00 1.3728992623552108e+01 2.7979322111437284e+01 3.9556767680298335e+00 0 0 0
501 1 1 0.0000000000000000e+00 1.1254799065683072e+01 2.2257147269607884e+01 4.0459048772540447e+00 0 0 0
621 1 1 0.0000000000000000e+00 1.3737615905998224e+01 2.2260994787917802e+01 3.9986173285787334e+00 0 0 0
500 1 1 0.0000000000000000e+00 1.2497781273625447e+01 2.1544490496847061e+01 4.0425046204020996e+00 0 0 0
620 1 1 0.0000000000000000e+00 1.4980405339277217e+01 2.1549636086957307e+01 3.9795319273255596e+00 0 0 0
380 1 1 0.0000000000000000e+00 1.0014414304088668e+01 2.1540056733874376e+01 4.0691402979533349e+00 0 0 0
27 1 1 0.0000000000000000e+00 2.5805938276037850e+00 2.8699655495544118e+01 4.0440607189594262e+00 0 0 0
147 1 1 0.0000000000000000e+00 5.0576569204615076e+00 2.8699700963176447e+01 4.0138524822299351e+00 0 0 0
267 1 1 0.0000000000000000e+00 7.5308382203684356e+00 2.8699017014135734e+01 3.9803476055771303e+00 0 0 0
29 1 1 0.0000000000000000e+00 1.3421720784741598e+00 3.0847578665987896e+01 4.0599356097842199e+00 0 0 0
28 1 1 0.0000000000000000e+00 2.5796832673452408e+00 3.0130940069652709e+01 4.0588278146649435e+00 0 0 0
31 1 1 0.0000000000000000e+00 2.5781279705056241e+00 3.2997467040578336e+01 4.0353790360569519e+00 0 0 0
32 1 1 0.0000000000000000e+00 2.5785268142410613e+00 3.4430599716661042e+01 4.0247788642435092e+00 0 0 0
148 1 1 0.0000000000000000e+00 5.0540763300848388e+00 3.0130889213233825e+01 4.0325923077651034e+00 0 0 0
149 1 1 0.0000000000000000e+00 3.8164963285033564e+00 3.0847915545730554e+01 4.0532061377598465e+00 0 0 0
150 1 1 0.0000000000000000e+00 3.8147474984446230e+00 3.2279752931094997e+01 4.0476383329581935e+00 0 0 0
151 1 1 0.0000000000000000e+00 5.0509025430748160e+00 3.2997176189796321e+01 4.0404152270590270e+00 0 0 0
152 1 1 0.0000000000000000e+00 5.0527155031903330e+00 3.4429035006864147e+01 4.0292730489078750e+00 0 0 0
153 1 1 0.0000000000000000e+00 3.8163317466652953e+00 3.5147177915835385e+01 4.0279079153699637e+00 0 0 0
268 1 1 0.0000000000000000e+00 7.5260547921922978e+00 3.0129620785406264e+01 3.9836142907569396e+00 0 0 0
269 1 1 0.0000000000000000e+00 6.2889051003443956e+00 3.0847422737654671e+01 4.0153923852436479e+00 0 0 0
270 1 1 0.0000000000000000e+00 6.2866050104931928e+00 3.2278820382346304e+01 4.0218448835613092e+00 0 0 0
271 1 1 0.0000000000000000e+00 7.5229189997247410e+00 3.2992802671180932e+01 3.9871474918305867e+00 0 0 0
272 1 1 0.0000000000000000e+00 7.5248485523802771e+00 3.4422774815416446e+01 3.9774076368164319e+00 0 0 0
273 1 1 0.0000000000000000e+00 6.2905422181598167e+00 3.5142194172744759e+01 4.0027386064518211e+00 0 0 0
30 1 1 0.0000000000000000e+00 1.3421986253798861e+00 3.2280340662957592e+01 4.0423571245060161e+00 0 0 0
33 1 1 0.0000000000000000e+00 1.3421443221324889e+00 3.5148342149840154e+01 4.0226329207370721e+00 0 0 0
6152 1 1 0.0000000000000000e+00 1.0590597879847691e-01 3.4429667884847213e+01 4.0256671344538280e+00 1 0 0
6151 1 1 0.0000000000000000e+00 1.0599625590300490e-01 3.2996605649655478e+01 4.0357263665818275e+00 1 0 0
6148 1 1 0.0000000000000000e+00 1.0468416391847363e-01 3.0130364753293684e+01 4.0611132263255945e+00 1 0 0
6147 1 1 0.0000000000000000e+00 1.0339719892503879e-01 2.8699028208367469e+01 4.0466457671789149e+00 1 0 0
387 1 1 0.0000000000000000e+00 1.0007327027073533e+01 2.8698725711014752e+01 3.9664391297932360e+00 0 0 0
507 1 1 0.0000000000000000e+00 1.2487232035772328e+01 2.8695038825983609e+01 3.9649705090727121e+00 0 0 0
627 1 1 0.0000000000000000e+00 1.4969369177761944e+01 2.8693582707717162e+01 3.9300543963406844e+00 0 0 0
389 1 1 0.0000000000000000e+00 8.7618968932379548e+00 3.0844476477744337e+01 3.9559816839358768e+00 0 0 0
390 1 1 0.0000000000000000e+00 8.7589795702425235e+00 3.2273937867949513e+01 3.9518753256531363e+00 0 0 0
393 1 1 0.0000000000000000e+00 8.7652498633623122e+00 3.5132342307643057e+01 3.9267615418443698e+00 0 0 0
388 1 1 0.0000000000000000e+00 1.0001896363735508e+01 3.0128366620117628e+01 3.9503770170353292e+00 0 0 0
391 1 1 0.0000000000000000e+00 9.9983748463111901e+00 3.2984126843771357e+01 3.9245823564287656e+00 0 0 0
392 1 1 0.0000000000000000e+00 1.0001726754946047e+01 3.4412974009130807e+01 3.9082440023964029e+00 0 0 0
508 1 1 0.0000000000000000e+00 1.2483696261508829e+01 3.0124385756794634e+01 3.9492173132046142e+00 0 0 0
509 1 1 0.0000000000000000e+00 1.1241665986104957e+01 3.0839231890150806e+01 3.9419192647138499e+00 0 0 0
510 1 1 0.0000000000000000e+00 1.1238294660798825e+01 3.2268451217724618e+01 3.9263814690795358e+00 0 0 0
511 1 1 0.0000000000000000e+00 1.2479195408019363e+01 3.2980096798987127e+01 3.9103883430032074e+00 0 0 0
512 1 1 0.0000000000000000e+00 1.2480791602812356e+01 3.4409112334562657e+01 3.8823460903089102e+00 0 0 0
513 1 1 0.0000000000000000e+00 1.1243223026663777e+01 3.5123929949054947e+01 3.8765946421070683e+00 0 0 0
628 1 1 0.0000000000000000e+00 1.4964663468920335e+01 3.0123692865775880e+01 3.9244661817633721e+00 0 0 0
629 1 1 0.0000000000000000e+00 1.3723296292689104e+01 3.0837507394961740e+01 3.9325397336109331e+00 0 0 0
630 1 1 0.0000000000000000e+00 1.3719874203037199e+01 3.2267098333155616e+01 3.9117247239929291e+00 0 0 0
631 1 1 0.0000000000000000e+00 1.4958410422201140e+01 3.2984302444919841e+01 3.8933956725313070e+00 0 0 0
632 1 1 0.0000000000000000e+00 1.4959246513227900e+01 3.4415290621579167e+01 3.8715597210263248e+00 0 0 0
633 1 1 0.0000000000000000e+00 1.3720128544516323e+01 3.5126734166975659e+01 3.8575848943683106e+00 0 0 0
37 1 1 0.0000000000000000e+00 1.3420826710301401e+00 3.9431820891564819e+01 4.0401281015170571e+00 0 0 0
38 1 1 0.0000000000000000e+00 1.3420453114027413e+00 4.0858997370630476e+01 4.0318827978917513e+00 0 0 0
154 1 1 0.0000000000000000e+00 3.8201196815764007e+00 3.6578452777234865e+01 4.0282499876942301e+00 0 0 0
274 1 1 0.0000000000000000e+00 6.2958540715244844e+00 3.6572113613471195e+01 3.9859526576286881e+00 0 0 0
35 1 1 0.0000000000000000e+00 2.5816454964227202e+00 3.7292557648642379e+01 4.0354866018787723e+00 0 0 0
36 1 1 0.0000000000000000e+00 2.5846991163409756e+00 3.8720748499854984e+01 4.0387398844228839e+00 0 0 0
39 1 1 0.0000000000000000e+00 2.5851835304423600e+00 4.1570851414448093e+01 4.0226125484354558e+00 0 0 0
155 1 1 0.0000000000000000e+00 5.0603702647764814e+00 3.7291735645842181e+01 4.0097671714402052e+00 0 0 0
156 1 1 0.0000000000000000e+00 5.0646386758672532e+00 3.8720407252164470e+01 4.0079989538918221e+00 0 0 0
157 1 1 0.0000000000000000e+00 3.8260704523332856e+00 3.9433502743902025e+01 4.0269896072731690e+00 0 0 0
158 1 1 0.0000000000000000e+00 3.8273251411724059e+00 4.0860235458780927e+01 4.0191239590491001e+00 0 0 0
159 1 1 0.0000000000000000e+00 5.0673075038899773e+00 4.1572910046982621e+01 4.0041491577620878e+00 0 0 0
275 1 1 0.0000000000000000e+00 7.5360188101700984e+00 3.7281960028414503e+01 3.9379516472739362e+00 0 0 0
276 1 1 0.0000000000000000e+00 7.5414790713736268e+00 3.8711325293865627e+01 3.9310195230015297e+00 0 0 0
277 1 1 0.0000000000000000e+00 6.3052047879469972e+00 3.9430017268993964e+01 3.9750610612241939e+00 0 0 0
278 1 1 0.0000000000000000e+00 6.3067801587219217e+00 4.0858104219704146e+01 3.9840098190428663e+00 0 0 0
279 1 1 0.0000000000000000e+00 7.5468875823745964e+00 4.1566933805654230e+01 3.9707077348141362e+00 0 0 0
6159 1 1 0.0000000000000000e+00 9.8630519301289604e-02 4.1570185718518154e+01 4.0285306644479331e+00 1 0 0
6156 1 1 0.0000000000000000e+00 9.9713272581743423e-02 3.8719953372705589e+01 4.0428162760149613e+00 1 0 0
6155 1 1 0.0000000000000000e+00 1.0274025307471588e-01 3.7291673421572625e+01 4.0384515273561972e+00 1 0 0
34 1 1 0.0000000000000000e+00 1.3422797707642367e+00 3.6578628995657660e+01 4.0292327162200516e+00 0 0 0
515 1 1 0.0000000000000000e+00 1.2488018557773316e+01 3.7269663585958433e+01 3.8275922152378898e+00 0 0 0
636 1 1 0.0000000000000000e+00 1.4969620669586035e+01 3.8711582437545104e+01 3.8591684122263419e+00 0 0 0
635 1 1 0.0000000000000000e+00 1.4965055482607386e+01 3.7280245652261037e+01 3.8393563963346704e+00 0 0 0
519 1 1 0.0000000000000000e+00 1.2495309532132543e+01 4.1560579406289840e+01 3.9079601193049744e+00 0 0 0
518 1 1 0.0000000000000000e+00 1.1258466639389821e+01 4.0842210576280827e+01 3.8796300443181972e+00 0 0 0
516 1 1 0.0000000000000000e+00 1.2493797764819055e+01 3.8699955164535197e+01 3.8264776328963173e+00 0 0 0
399 1 1 0.0000000000000000e+00 1.0021611015715887e+01 4.1556731660286822e+01 3.9221129462415787e+00 0 0 0
394 1 1 0.0000000000000000e+00 8.7710530108786511e+00 3.6562091988452366e+01 3.9023289667296304e+00 0 0 0
398 1 1 0.0000000000000000e+00 8.7830774525558226e+00 4.0847672458558847e+01 3.9281252997158003e+00 0 0 0
397 1 1 0.0000000000000000e+00 8.7817329678116618e+00 3.9419622925932629e+01 3.8950199174303548e+00 0 0 0
639 1 1 0.0000000000000000e+00 1.4966777861824795e+01 4.1573721846060572e+01 3.9662544744383319e+00 0 0 0
638 1 1 0.0000000000000000e+00 1.3733361077091018e+01 4.0850223507063461e+01 3.9005259562226673e+00 0 0 0
634 1 1 0.0000000000000000e+00 1.3725797935122293e+01 3.6557936213319365e+01 3.8320159381857306e+00 0 0 0
514 1 1 0.0000000000000000e+00 1.1248028284948367e+01 3.6553880251681512e+01 3.8486338526214832e+00 0 0 0
396 1 1 0.0000000000000000e+00 1.0016626993583824e+01 3.8700437517315272e+01 3.8512186926029730e+00 0 0 0
637 1 1 0.0000000000000000e+00 1.3732095296675407e+01 3.9420281374014706e+01 3.8502813943291345e+00 0 0 0
517 1 1 0.0000000000000000e+00 1.1256335274787823e+01 3.9413320534948895e+01 3.8408791523534243e+00 0 0 0
395 1 1 0.0000000000000000e+00 1.0012150249574550e+01 3.7271411263481397e+01 3.8583212599697521e+00 0 0 0
43 1 1 0.0000000000000000e+00 2.5817185039124100e+00 4.5854083832526975e+01 4.0227869970831875e+00 0 0 0
44 1 1 0.0000000000000000e+00 2.5821225321081109e+00 4.7283338520875333e+01 4.0210428077292217e+00 0 0 0
162 1 1 0.0000000000000000e+00 3.8228351771617852e+00 4.5141287753987477e+01 4.0008117897731861e+00 0 0 0
163 1 1 0.0000000000000000e+00 5.0632988893388831e+00 4.5853454041275157e+01 3.9776819442070854e+00 0 0 0
164 1 1 0.0000000000000000e+00 5.0637182140922690e+00 4.7282301409158073e+01 3.9741287840324695e+00 0 0 0
165 1 1 0.0000000000000000e+00 3.8234149365721231e+00 4.7997084835889503e+01 3.9983559956805719e+00 0 0 0
166 1 1 0.0000000000000000e+00 3.8237128279523174e+00 4.9426337981622559e+01 3.9886689986302089e+00 0 0 0
282 1 1 0.0000000000000000e+00 6.3031642527208076e+00 4.5138604431946426e+01 3.9744049610458863e+00 0 0 0
283 1 1 0.0000000000000000e+00 7.5428658594450333e+00 4.5848672811689575e+01 3.9766570189528792e+00 0 0 0
284 1 1 0.0000000000000000e+00 7.5419100036643814e+00 4.7276961803546598e+01 3.9711022225886312e+00 0 0 0
285 1 1 0.0000000000000000e+00 6.3038993325385899e+00 4.7994394093815721e+01 3.9617848520599570e+00 0 0 0
286 1 1 0.0000000000000000e+00 6.3035854695994473e+00 4.9423746331302937e+01 3.9466511887198958e+00 0 0 0
46 1 1 0.0000000000000000e+00 1.3409269073906294e+00 4.9424537237589206e+01 4.0180982870354471e+00 0 0 0
45 1 1 0.0000000000000000e+00 1.3411124708873925e+00 4.7996049239026490e+01 4.0254064605718129e+00 0 0 0
42 1 1 0.0000000000000000e+00 1.3413918341111262e+00 4.5139172177841701e+01 4.0306174068030254e+00 0 0 0
161 1 1 0.0000000000000000e+00 3.8241777653580327e+00 4.3712544733666093e+01 4.0055814109157861e+00 0 0 0
281 1 1 0.0000000000000000e+00 6.3061823981180494e+00 4.3711285363245096e+01 3.9865254122327105e+00 0 0 0
41 1 1 0.0000000000000000e+00 1.3415629561704943e+00 4.3710263210714736e+01 4.0233918051146595e+00 0 0 0
6163 1 1 0.0000000000000000e+00 1.0086318068616140e-01 4.5853723148151850e+01 4.0255130135210306e+00 1 0 0